       N       E                     dE             d eps       ncg     rms          rms(c)

 E_p =  0.41241E+02  lambda =  0.100E+02
<lVp>= -0.12060E+03
 DBL =  0.16184E+03
 ion        MW_int                 M_int
  1  2.969  0.000  0.000    4.448  0.000  0.000
  2  0.054  0.000  0.000    0.227  0.000  0.000
DAV:   1     0.412084179117E+03    0.41208E+03   -0.17141E+04    96   0.189E+03

 E_p =  0.41241E+02  lambda =  0.100E+02
<lVp>= -0.12060E+03
 DBL =  0.16184E+03
 ion        MW_int                 M_int
  1  2.969  0.000  0.000    4.448  0.000  0.000
  2  0.054  0.000  0.000    0.227  0.000  0.000
DAV:   2     0.273200521713E+02   -0.38476E+03   -0.37233E+03    88   0.586E+02

 E_p =  0.41241E+02  lambda =  0.100E+02
<lVp>= -0.12060E+03
 DBL =  0.16184E+03
 ion        MW_int                 M_int
  1  2.969  0.000  0.000    4.448  0.000  0.000
  2  0.054  0.000  0.000    0.227  0.000  0.000
DAV:   3     0.290587722447E+01   -0.24414E+02   -0.23981E+02   104   0.158E+02

 E_p =  0.41241E+02  lambda =  0.100E+02
<lVp>= -0.12060E+03
 DBL =  0.16184E+03
 ion        MW_int                 M_int
  1  2.969  0.000  0.000    4.448  0.000  0.000
  2  0.054  0.000  0.000    0.227  0.000  0.000
DAV:   4     0.221731365277E+01   -0.68856E+00   -0.68763E+00   136   0.275E+01

 E_p =  0.41241E+02  lambda =  0.100E+02
<lVp>= -0.12060E+03
 DBL =  0.16184E+03
 ion        MW_int                 M_int
  1  2.969  0.000  0.000    4.448  0.000  0.000
  2  0.054  0.000  0.000    0.227  0.000  0.000
DAV:   5     0.221092736960E+01   -0.63863E-02   -0.63827E-02   104   0.245E+00    0.834E+01

 E_p =  0.94720E+01  lambda =  0.100E+02
<lVp>= -0.78380E+02
 DBL =  0.87852E+02
 ion        MW_int                 M_int
  1  4.027  0.000 -0.000    5.366  0.000 -0.000
  2 -0.043 -0.000 -0.000   -0.210 -0.000  0.000
RMM:   6     0.943921378762E+01    0.72283E+01   -0.20118E+01    88   0.359E+01    0.552E+01

 E_p =  0.23617E+02  lambda =  0.100E+02
<lVp>= -0.10644E+03
 DBL =  0.13006E+03
 ion        MW_int                 M_int
  1  3.463 -0.002  0.000    4.964 -0.002  0.000
  2  0.112 -0.000  0.000    0.088 -0.000  0.000
RMM:   7     0.118334075913E+02    0.23942E+01   -0.47445E+00    90   0.205E+01    0.430E+01

 E_p =  0.23621E+02  lambda =  0.100E+02
<lVp>= -0.10643E+03
 DBL =  0.13006E+03
 ion        MW_int                 M_int
  1  3.463  0.021 -0.003    4.888  0.025 -0.004
  2  0.121  0.002 -0.001    0.139  0.003 -0.001
RMM:   8     0.122044800821E+02    0.37107E+00   -0.17394E+00    95   0.106E+01    0.177E+01

 E_p =  0.18367E+02  lambda =  0.100E+02
<lVp>= -0.98148E+02
 DBL =  0.11652E+03
 ion        MW_int                 M_int
  1  3.651 -0.130  0.022    5.069 -0.158  0.026
  2  0.144 -0.016  0.005    0.089 -0.023  0.007
RMM:   9     0.118178631564E+02   -0.38662E+00   -0.46844E+00    91   0.225E+01    0.125E+01

 E_p =  0.20127E+02  lambda =  0.100E+02
<lVp>= -0.10079E+03
 DBL =  0.12092E+03
 ion        MW_int                 M_int
  1  3.590  0.151 -0.026    4.995  0.188 -0.032
  2  0.147  0.010 -0.001    0.121  0.017 -0.002
RMM:  10     0.117183519196E+02   -0.99511E-01   -0.13041E+01    96   0.343E+01    0.103E+01

 E_p =  0.21404E+02  lambda =  0.100E+02
<lVp>= -0.10346E+03
 DBL =  0.12486E+03
 ion        MW_int                 M_int
  1  3.537 -0.032  0.005    4.933 -0.038  0.007
  2  0.147 -0.007  0.001    0.142 -0.009  0.000
RMM:  11     0.123504562026E+02    0.63210E+00   -0.55623E+00    93   0.220E+01    0.390E+00

 E_p =  0.20564E+02  lambda =  0.100E+02
<lVp>= -0.10225E+03
 DBL =  0.12282E+03
 ion        MW_int                 M_int
  1  3.566  0.023 -0.004    4.970  0.021 -0.004
  2  0.141  0.011 -0.001    0.127  0.017 -0.001
RMM:  12     0.123814951756E+02    0.31039E-01   -0.50795E-01    89   0.736E+00    0.228E+00

 E_p =  0.20425E+02  lambda =  0.100E+02
<lVp>= -0.10206E+03
 DBL =  0.12248E+03
 ion        MW_int                 M_int
  1  3.571  0.017 -0.003    4.977  0.022 -0.004
  2  0.145  0.001 -0.001    0.128  0.001 -0.001
RMM:  13     0.123827796437E+02    0.12845E-02   -0.50192E-02    92   0.218E+00    0.103E+00

 E_p =  0.20322E+02  lambda =  0.100E+02
<lVp>= -0.10191E+03
 DBL =  0.12223E+03
 ion        MW_int                 M_int
  1  3.574  0.002 -0.000    4.979  0.003 -0.000
  2  0.146  0.001  0.000    0.128  0.002  0.000
RMM:  14     0.123903590656E+02    0.75794E-02   -0.70231E-02    93   0.275E+00    0.558E-01

 E_p =  0.20325E+02  lambda =  0.100E+02
<lVp>= -0.10192E+03
 DBL =  0.12224E+03
 ion        MW_int                 M_int
  1  3.574 -0.002  0.000    4.979 -0.002  0.000
  2  0.146  0.000 -0.000    0.128  0.001 -0.000
RMM:  15     0.123921478068E+02    0.17887E-02   -0.26926E-02    93   0.151E+00    0.552E-01

 E_p =  0.20326E+02  lambda =  0.100E+02
<lVp>= -0.10192E+03
 DBL =  0.12224E+03
 ion        MW_int                 M_int
  1  3.574 -0.003  0.000    4.979 -0.004  0.001
  2  0.147 -0.000 -0.000    0.128 -0.000 -0.000
RMM:  16     0.123917087626E+02   -0.43904E-03   -0.16852E-02    93   0.108E+00    0.465E-01

 E_p =  0.20345E+02  lambda =  0.100E+02
<lVp>= -0.10195E+03
 DBL =  0.12229E+03
 ion        MW_int                 M_int
  1  3.574 -0.001  0.000    4.979 -0.002  0.000
  2  0.147 -0.000  0.000    0.128  0.000  0.000
RMM:  17     0.123921867607E+02    0.47800E-03   -0.17280E-02    95   0.110E+00    0.275E-01

 E_p =  0.20358E+02  lambda =  0.100E+02
<lVp>= -0.10197E+03
 DBL =  0.12232E+03
 ion        MW_int                 M_int
  1  3.573  0.000 -0.000    4.979  0.001 -0.000
  2  0.147 -0.000  0.000    0.129 -0.000  0.000
RMM:  18     0.123918335832E+02   -0.35318E-03   -0.17927E-02    94   0.103E+00    0.212E-01

 E_p =  0.20379E+02  lambda =  0.100E+02
<lVp>= -0.10200E+03
 DBL =  0.12238E+03
 ion        MW_int                 M_int
  1  3.572  0.001 -0.000    4.978  0.001 -0.000
  2  0.147 -0.000 -0.000    0.129 -0.000 -0.000
RMM:  19     0.123926562104E+02    0.82263E-03   -0.18311E-02    95   0.959E-01    0.166E-01

 E_p =  0.20389E+02  lambda =  0.100E+02
<lVp>= -0.10201E+03
 DBL =  0.12240E+03
 ion        MW_int                 M_int
  1  3.572 -0.001  0.000    4.978 -0.001  0.001
  2  0.148  0.001 -0.000    0.129  0.001 -0.000
RMM:  20     0.123921296376E+02   -0.52657E-03   -0.19997E-02   101   0.104E+00    0.220E-01

 E_p =  0.20393E+02  lambda =  0.100E+02
<lVp>= -0.10202E+03
 DBL =  0.12241E+03
 ion        MW_int                 M_int
  1  3.572 -0.001  0.000    4.978 -0.001  0.000
  2  0.148  0.000 -0.000    0.129  0.000  0.000
RMM:  21     0.123928795537E+02    0.74992E-03   -0.10202E-02    95   0.729E-01    0.172E-01

 E_p =  0.20387E+02  lambda =  0.100E+02
<lVp>= -0.10201E+03
 DBL =  0.12240E+03
 ion        MW_int                 M_int
  1  3.572 -0.001  0.000    4.978 -0.001  0.000
  2  0.147 -0.000  0.000    0.129 -0.000  0.000
RMM:  22     0.123930043640E+02    0.12481E-03   -0.99807E-03    94   0.694E-01    0.126E-01

 E_p =  0.20383E+02  lambda =  0.100E+02
<lVp>= -0.10200E+03
 DBL =  0.12239E+03
 ion        MW_int                 M_int
  1  3.572 -0.000 -0.000    4.978 -0.000 -0.000
  2  0.147 -0.000 -0.000    0.129 -0.000 -0.000
RMM:  23     0.123929013753E+02   -0.10299E-03   -0.58133E-03    90   0.565E-01    0.944E-02

 E_p =  0.20379E+02  lambda =  0.100E+02
<lVp>= -0.10200E+03
 DBL =  0.12238E+03
 ion        MW_int                 M_int
  1  3.572 -0.000  0.000    4.978 -0.000  0.000
  2  0.147  0.000  0.000    0.129 -0.000 -0.000
RMM:  24     0.123930514477E+02    0.15007E-03   -0.45843E-03    92   0.498E-01    0.680E-02

 E_p =  0.20379E+02  lambda =  0.100E+02
<lVp>= -0.10200E+03
 DBL =  0.12238E+03
 ion        MW_int                 M_int
  1  3.572 -0.000  0.000    4.978 -0.000  0.000
  2  0.147  0.000  0.000    0.129  0.000  0.000
RMM:  25     0.123931450359E+02    0.93588E-04   -0.20979E-03    85   0.328E-01    0.397E-02

 E_p =  0.20378E+02  lambda =  0.100E+02
<lVp>= -0.10200E+03
 DBL =  0.12237E+03
 ion        MW_int                 M_int
  1  3.572 -0.000  0.000    4.978 -0.000  0.000
  2  0.147 -0.000  0.000    0.129 -0.000  0.000
RMM:  26     0.123930992639E+02   -0.45772E-04   -0.71271E-04    82   0.210E-01
   1 F= 0.12393099E+02 E0= 0.12393099E+02  d E =0.123931E+02  mag=     4.9995    -0.0001     0.0000
