       N       E                     dE             d eps       ncg     rms          rms(c)

 E_p =  0.20380E+02  lambda =  0.100E+02
<lVp>= -0.10200E+03
 DBL =  0.12238E+03
 ion        MW_int                 M_int
  1  3.572  0.000 -0.000    4.978  0.000 -0.000
  2  0.147 -0.000 -0.000    0.129 -0.000 -0.000
DAV:   1     0.123928706341E+02    0.12393E+02   -0.78146E-03   104   0.581E-01    0.899E-02

 E_p =  0.20378E+02  lambda =  0.100E+02
<lVp>= -0.10200E+03
 DBL =  0.12237E+03
 ion        MW_int                 M_int
  1  3.572 -0.000  0.001    4.978 -0.001  0.000
  2  0.147  0.000  0.000    0.129  0.001  0.001
RMM:   2     0.123906510076E+02   -0.22196E-02   -0.36555E-02    94   0.141E+00    0.275E-01

 E_p =  0.20379E+02  lambda =  0.100E+02
<lVp>= -0.10200E+03
 DBL =  0.12238E+03
 ion        MW_int                 M_int
  1  3.572  0.000 -0.000    4.978  0.000 -0.000
  2  0.147  0.000  0.000    0.129  0.000 -0.000
RMM:   3     0.123926921122E+02    0.20411E-02   -0.74468E-03    93   0.672E-01    0.106E-01

 E_p =  0.20379E+02  lambda =  0.100E+02
<lVp>= -0.10200E+03
 DBL =  0.12238E+03
 ion        MW_int                 M_int
  1  3.572 -0.000  0.000    4.978 -0.000  0.000
  2  0.147  0.000  0.000    0.129  0.000  0.000
RMM:   4     0.123929624136E+02    0.27030E-03   -0.16586E-03    91   0.318E-01
   1 F= 0.12392962E+02 E0= 0.12392962E+02  d E =0.123930E+02  mag=     4.9997    -0.0000     0.0001
       N       E                     dE             d eps       ncg     rms          rms(c)

 E_p =  0.20379E+02  lambda =  0.100E+02
<lVp>= -0.10200E+03
 DBL =  0.12238E+03
 ion        MW_int                 M_int
  1  3.572 -0.000  0.000    4.978 -0.000  0.000
  2  0.147  0.000  0.000    0.129  0.000  0.000
DAV:   1     0.123930625840E+02    0.37047E-03   -0.23153E-03    92   0.314E-01    0.456E-02

 E_p =  0.20379E+02  lambda =  0.100E+02
<lVp>= -0.10200E+03
 DBL =  0.12238E+03
 ion        MW_int                 M_int
  1  3.572  0.000 -0.000    4.978  0.000 -0.000
  2  0.147 -0.000 -0.000    0.129 -0.000 -0.001
RMM:   2     0.123902516378E+02   -0.28109E-02   -0.21968E-02    92   0.107E+00    0.221E-01

 E_p =  0.20379E+02  lambda =  0.100E+02
<lVp>= -0.10200E+03
 DBL =  0.12238E+03
 ion        MW_int                 M_int
  1  3.572  0.000  0.000    4.978  0.000  0.000
  2  0.147 -0.000 -0.000    0.129 -0.000 -0.000
RMM:   3     0.123931463616E+02    0.28947E-02   -0.84606E-03    93   0.647E-01    0.526E-02

 E_p =  0.20379E+02  lambda =  0.100E+02
<lVp>= -0.10200E+03
 DBL =  0.12238E+03
 ion        MW_int                 M_int
  1  3.572  0.000 -0.000    4.978  0.000 -0.000
  2  0.147 -0.000 -0.000    0.129 -0.000 -0.000
RMM:   4     0.123930846239E+02   -0.61738E-04   -0.13737E-03    91   0.281E-01
   2 F= 0.12393085E+02 E0= 0.12393085E+02  d E =0.122210E-03  mag=     4.9996     0.0000    -0.0001
